
     Program PWSCF v.6.7MaX starts on  3Dec2025 at 15:41:37 

     This program is part of the open-source Quantum ESPRESSO suite
     for quantum simulation of materials; please cite
         "P. Giannozzi et al., J. Phys.:Condens. Matter 21 395502 (2009);
         "P. Giannozzi et al., J. Phys.:Condens. Matter 29 465901 (2017);
          URL http://www.quantum-espresso.org", 
     in publications or presentations arising from this work. More details at
     http://www.quantum-espresso.org/quote

     Parallel version (MPI), running on     1 processors

     MPI processes distributed on     1 nodes
     Reading input from iron.in
Warning: card &CELL ignored
Warning: card   PRESS_CONV_THR=0.1 ignored
Warning: card / ignored

     Current dimensions of program PWSCF are:
     Max number of different atomic species (ntypx) = 10
     Max number of k-points (npk) =  40000
     Max angular momentum in pseudopotentials (lmaxx) =  3

     Subspace diagonalization in iterative solution of the eigenvalue problem:
     a serial algorithm will be used

     Found symmetry operation: I + ( -0.5000 -0.5000  0.0000)
     This is a supercell, fractional translations are disabled

     G-vector sticks info
     --------------------
     sticks:   dense  smooth     PW     G-vecs:    dense   smooth      PW
     Sum        1813     725    221                58269    14771    2469


     Title: 
     Elemental:bulk:(Fe)4:cP(1):Fm-3m (225):non-primitive(1):45.92              


     bravais-lattice index     =            1
     lattice parameter (alat)  =       6.7671  a.u.
     unit-cell volume          =     309.8914 (a.u.)^3
     number of atoms/cell      =            4
     number of atomic types    =            1
     number of electrons       =        64.00
     number of Kohn-Sham states=           38
     kinetic-energy cutoff     =      50.0000  Ry
     charge density cutoff     =     500.0000  Ry
     scf convergence threshold =      1.0E-08
     mixing beta               =       0.7000
     number of iterations used =            8  plain     mixing
     Exchange-correlation= PBE
                           (   1   4   3   4   0   0   0)

     celldm(1)=   6.767109  celldm(2)=   0.000000  celldm(3)=   0.000000
     celldm(4)=   0.000000  celldm(5)=   0.000000  celldm(6)=   0.000000

     crystal axes: (cart. coord. in units of alat)
               a(1) = (   1.000000   0.000000   0.000000 )  
               a(2) = (   0.000000   1.000000   0.000000 )  
               a(3) = (   0.000000   0.000000   1.000000 )  

     reciprocal axes: (cart. coord. in units 2 pi/alat)
               b(1) = (  1.000000  0.000000  0.000000 )  
               b(2) = (  0.000000  1.000000  0.000000 )  
               b(3) = (  0.000000  0.000000  1.000000 )  


     PseudoPot. # 1 for Fe read from file:
     /mnt/c/QuantumEspresso/qe-7.5/pseudo/Fe.UPF
     MD5 check sum: bf0d264c7a1c6977effef27ee801aa1a
     Pseudo is Ultrasoft + core correction, Zval = 16.0
     Generated using &quot;atomic&quot; code by A. Dal Corso  v.6.3
     Using radial grid of 1191 points,  6 beta functions with: 
                l(1) =   0
                l(2) =   0
                l(3) =   1
                l(4) =   1
                l(5) =   2
                l(6) =   2
     Q(r) pseudized with 0 coefficients 


     atomic species   valence    mass     pseudopotential
        Fe            16.00    55.84500     Fe( 1.00)

     48 Sym. Ops., with inversion, found


                                    s                        frac. trans.

      isym =  1     identity                                     

 cryst.   s( 1) = (     1          0          0      )
                  (     0          1          0      )
                  (     0          0          1      )

 cart.    s( 1) = (  1.0000000  0.0000000  0.0000000 )
                  (  0.0000000  1.0000000  0.0000000 )
                  (  0.0000000  0.0000000  1.0000000 )


      isym =  2     180 deg rotation - cart. axis [0,0,1]        

 cryst.   s( 2) = (    -1          0          0      )
                  (     0         -1          0      )
                  (     0          0          1      )

 cart.    s( 2) = ( -1.0000000  0.0000000  0.0000000 )
                  (  0.0000000 -1.0000000  0.0000000 )
                  (  0.0000000  0.0000000  1.0000000 )


      isym =  3     180 deg rotation - cart. axis [0,1,0]        

 cryst.   s( 3) = (    -1          0          0      )
                  (     0          1          0      )
                  (     0          0         -1      )

 cart.    s( 3) = ( -1.0000000  0.0000000  0.0000000 )
                  (  0.0000000  1.0000000  0.0000000 )
                  (  0.0000000  0.0000000 -1.0000000 )


      isym =  4     180 deg rotation - cart. axis [1,0,0]        

 cryst.   s( 4) = (     1          0          0      )
                  (     0         -1          0      )
                  (     0          0         -1      )

 cart.    s( 4) = (  1.0000000  0.0000000  0.0000000 )
                  (  0.0000000 -1.0000000  0.0000000 )
                  (  0.0000000  0.0000000 -1.0000000 )


      isym =  5     180 deg rotation - cart. axis [1,1,0]        

 cryst.   s( 5) = (     0          1          0      )
                  (     1          0          0      )
                  (     0          0         -1      )

 cart.    s( 5) = (  0.0000000  1.0000000  0.0000000 )
                  (  1.0000000  0.0000000  0.0000000 )
                  (  0.0000000  0.0000000 -1.0000000 )


      isym =  6     180 deg rotation - cart. axis [1,-1,0]       

 cryst.   s( 6) = (     0         -1          0      )
                  (    -1          0          0      )
                  (     0          0         -1      )

 cart.    s( 6) = (  0.0000000 -1.0000000  0.0000000 )
                  ( -1.0000000  0.0000000  0.0000000 )
                  (  0.0000000  0.0000000 -1.0000000 )


      isym =  7      90 deg rotation - cart. axis [0,0,-1]       

 cryst.   s( 7) = (     0         -1          0      )
                  (     1          0          0      )
                  (     0          0          1      )

 cart.    s( 7) = (  0.0000000  1.0000000  0.0000000 )
                  ( -1.0000000  0.0000000  0.0000000 )
                  (  0.0000000  0.0000000  1.0000000 )


      isym =  8      90 deg rotation - cart. axis [0,0,1]        

 cryst.   s( 8) = (     0          1          0      )
                  (    -1          0          0      )
                  (     0          0          1      )

 cart.    s( 8) = (  0.0000000 -1.0000000  0.0000000 )
                  (  1.0000000  0.0000000  0.0000000 )
                  (  0.0000000  0.0000000  1.0000000 )


      isym =  9     180 deg rotation - cart. axis [1,0,1]        

 cryst.   s( 9) = (     0          0          1      )
                  (     0         -1          0      )
                  (     1          0          0      )

 cart.    s( 9) = (  0.0000000  0.0000000  1.0000000 )
                  (  0.0000000 -1.0000000  0.0000000 )
                  (  1.0000000  0.0000000  0.0000000 )


      isym = 10     180 deg rotation - cart. axis [-1,0,1]       

 cryst.   s(10) = (     0          0         -1      )
                  (     0         -1          0      )
                  (    -1          0          0      )

 cart.    s(10) = (  0.0000000  0.0000000 -1.0000000 )
                  (  0.0000000 -1.0000000  0.0000000 )
                  ( -1.0000000  0.0000000  0.0000000 )


      isym = 11      90 deg rotation - cart. axis [0,1,0]        

 cryst.   s(11) = (     0          0         -1      )
                  (     0          1          0      )
                  (     1          0          0      )

 cart.    s(11) = (  0.0000000  0.0000000  1.0000000 )
                  (  0.0000000  1.0000000  0.0000000 )
                  ( -1.0000000  0.0000000  0.0000000 )


      isym = 12      90 deg rotation - cart. axis [0,-1,0]       

 cryst.   s(12) = (     0          0          1      )
                  (     0          1          0      )
                  (    -1          0          0      )

 cart.    s(12) = (  0.0000000  0.0000000 -1.0000000 )
                  (  0.0000000  1.0000000  0.0000000 )
                  (  1.0000000  0.0000000  0.0000000 )


      isym = 13     180 deg rotation - cart. axis [0,1,1]        

 cryst.   s(13) = (    -1          0          0      )
                  (     0          0          1      )
                  (     0          1          0      )

 cart.    s(13) = ( -1.0000000  0.0000000  0.0000000 )
                  (  0.0000000  0.0000000  1.0000000 )
                  (  0.0000000  1.0000000  0.0000000 )


      isym = 14     180 deg rotation - cart. axis [0,1,-1]       

 cryst.   s(14) = (    -1          0          0      )
                  (     0          0         -1      )
                  (     0         -1          0      )

 cart.    s(14) = ( -1.0000000  0.0000000  0.0000000 )
                  (  0.0000000  0.0000000 -1.0000000 )
                  (  0.0000000 -1.0000000  0.0000000 )


      isym = 15      90 deg rotation - cart. axis [-1,0,0]       

 cryst.   s(15) = (     1          0          0      )
                  (     0          0         -1      )
                  (     0          1          0      )

 cart.    s(15) = (  1.0000000  0.0000000  0.0000000 )
                  (  0.0000000  0.0000000  1.0000000 )
                  (  0.0000000 -1.0000000  0.0000000 )


      isym = 16      90 deg rotation - cart. axis [1,0,0]        

 cryst.   s(16) = (     1          0          0      )
                  (     0          0          1      )
                  (     0         -1          0      )

 cart.    s(16) = (  1.0000000  0.0000000  0.0000000 )
                  (  0.0000000  0.0000000 -1.0000000 )
                  (  0.0000000  1.0000000  0.0000000 )


      isym = 17     120 deg rotation - cart. axis [-1,-1,-1]     

 cryst.   s(17) = (     0          0          1      )
                  (     1          0          0      )
                  (     0          1          0      )

 cart.    s(17) = (  0.0000000  1.0000000  0.0000000 )
                  (  0.0000000  0.0000000  1.0000000 )
                  (  1.0000000  0.0000000  0.0000000 )


      isym = 18     120 deg rotation - cart. axis [-1,1,1]       

 cryst.   s(18) = (     0          0         -1      )
                  (    -1          0          0      )
                  (     0          1          0      )

 cart.    s(18) = (  0.0000000 -1.0000000  0.0000000 )
                  (  0.0000000  0.0000000  1.0000000 )
                  ( -1.0000000  0.0000000  0.0000000 )


      isym = 19     120 deg rotation - cart. axis [1,1,-1]       

 cryst.   s(19) = (     0          0         -1      )
                  (     1          0          0      )
                  (     0         -1          0      )

 cart.    s(19) = (  0.0000000  1.0000000  0.0000000 )
                  (  0.0000000  0.0000000 -1.0000000 )
                  ( -1.0000000  0.0000000  0.0000000 )


      isym = 20     120 deg rotation - cart. axis [1,-1,1]       

 cryst.   s(20) = (     0          0          1      )
                  (    -1          0          0      )
                  (     0         -1          0      )

 cart.    s(20) = (  0.0000000 -1.0000000  0.0000000 )
                  (  0.0000000  0.0000000 -1.0000000 )
                  (  1.0000000  0.0000000  0.0000000 )


      isym = 21     120 deg rotation - cart. axis [1,1,1]        

 cryst.   s(21) = (     0          1          0      )
                  (     0          0          1      )
                  (     1          0          0      )

 cart.    s(21) = (  0.0000000  0.0000000  1.0000000 )
                  (  1.0000000  0.0000000  0.0000000 )
                  (  0.0000000  1.0000000  0.0000000 )


      isym = 22     120 deg rotation - cart. axis [-1,1,-1]      

 cryst.   s(22) = (     0         -1          0      )
                  (     0          0         -1      )
                  (     1          0          0      )

 cart.    s(22) = (  0.0000000  0.0000000  1.0000000 )
                  ( -1.0000000  0.0000000  0.0000000 )
                  (  0.0000000 -1.0000000  0.0000000 )


      isym = 23     120 deg rotation - cart. axis [1,-1,-1]      

 cryst.   s(23) = (     0         -1          0      )
                  (     0          0          1      )
                  (    -1          0          0      )

 cart.    s(23) = (  0.0000000  0.0000000 -1.0000000 )
                  ( -1.0000000  0.0000000  0.0000000 )
                  (  0.0000000  1.0000000  0.0000000 )


      isym = 24     120 deg rotation - cart. axis [-1,-1,1]      

 cryst.   s(24) = (     0          1          0      )
                  (     0          0         -1      )
                  (    -1          0          0      )

 cart.    s(24) = (  0.0000000  0.0000000 -1.0000000 )
                  (  1.0000000  0.0000000  0.0000000 )
                  (  0.0000000 -1.0000000  0.0000000 )


      isym = 25     inversion                                    

 cryst.   s(25) = (    -1          0          0      )
                  (     0         -1          0      )
                  (     0          0         -1      )

 cart.    s(25) = ( -1.0000000  0.0000000  0.0000000 )
                  (  0.0000000 -1.0000000  0.0000000 )
                  (  0.0000000  0.0000000 -1.0000000 )


      isym = 26     inv. 180 deg rotation - cart. axis [0,0,1]   

 cryst.   s(26) = (     1          0          0      )
                  (     0          1          0      )
                  (     0          0         -1      )

 cart.    s(26) = (  1.0000000  0.0000000  0.0000000 )
                  (  0.0000000  1.0000000  0.0000000 )
                  (  0.0000000  0.0000000 -1.0000000 )


      isym = 27     inv. 180 deg rotation - cart. axis [0,1,0]   

 cryst.   s(27) = (     1          0          0      )
                  (     0         -1          0      )
                  (     0          0          1      )

 cart.    s(27) = (  1.0000000  0.0000000  0.0000000 )
                  (  0.0000000 -1.0000000  0.0000000 )
                  (  0.0000000  0.0000000  1.0000000 )


      isym = 28     inv. 180 deg rotation - cart. axis [1,0,0]   

 cryst.   s(28) = (    -1          0          0      )
                  (     0          1          0      )
                  (     0          0          1      )

 cart.    s(28) = ( -1.0000000  0.0000000  0.0000000 )
                  (  0.0000000  1.0000000  0.0000000 )
                  (  0.0000000  0.0000000  1.0000000 )


      isym = 29     inv. 180 deg rotation - cart. axis [1,1,0]   

 cryst.   s(29) = (     0         -1          0      )
                  (    -1          0          0      )
                  (     0          0          1      )

 cart.    s(29) = (  0.0000000 -1.0000000  0.0000000 )
                  ( -1.0000000  0.0000000  0.0000000 )
                  (  0.0000000  0.0000000  1.0000000 )


      isym = 30     inv. 180 deg rotation - cart. axis [1,-1,0]  

 cryst.   s(30) = (     0          1          0      )
                  (     1          0          0      )
                  (     0          0          1      )

 cart.    s(30) = (  0.0000000  1.0000000  0.0000000 )
                  (  1.0000000  0.0000000  0.0000000 )
                  (  0.0000000  0.0000000  1.0000000 )


      isym = 31     inv.  90 deg rotation - cart. axis [0,0,-1]  

 cryst.   s(31) = (     0          1          0      )
                  (    -1          0          0      )
                  (     0          0         -1      )

 cart.    s(31) = (  0.0000000 -1.0000000  0.0000000 )
                  (  1.0000000  0.0000000  0.0000000 )
                  (  0.0000000  0.0000000 -1.0000000 )


      isym = 32     inv.  90 deg rotation - cart. axis [0,0,1]   

 cryst.   s(32) = (     0         -1          0      )
                  (     1          0          0      )
                  (     0          0         -1      )

 cart.    s(32) = (  0.0000000  1.0000000  0.0000000 )
                  ( -1.0000000  0.0000000  0.0000000 )
                  (  0.0000000  0.0000000 -1.0000000 )


      isym = 33     inv. 180 deg rotation - cart. axis [1,0,1]   

 cryst.   s(33) = (     0          0         -1      )
                  (     0          1          0      )
                  (    -1          0          0      )

 cart.    s(33) = (  0.0000000  0.0000000 -1.0000000 )
                  (  0.0000000  1.0000000  0.0000000 )
                  ( -1.0000000  0.0000000  0.0000000 )


      isym = 34     inv. 180 deg rotation - cart. axis [-1,0,1]  

 cryst.   s(34) = (     0          0          1      )
                  (     0          1          0      )
                  (     1          0          0      )

 cart.    s(34) = (  0.0000000  0.0000000  1.0000000 )
                  (  0.0000000  1.0000000  0.0000000 )
                  (  1.0000000  0.0000000  0.0000000 )


      isym = 35     inv.  90 deg rotation - cart. axis [0,1,0]   

 cryst.   s(35) = (     0          0          1      )
                  (     0         -1          0      )
                  (    -1          0          0      )

 cart.    s(35) = (  0.0000000  0.0000000 -1.0000000 )
                  (  0.0000000 -1.0000000  0.0000000 )
                  (  1.0000000  0.0000000  0.0000000 )


      isym = 36     inv.  90 deg rotation - cart. axis [0,-1,0]  

 cryst.   s(36) = (     0          0         -1      )
                  (     0         -1          0      )
                  (     1          0          0      )

 cart.    s(36) = (  0.0000000  0.0000000  1.0000000 )
                  (  0.0000000 -1.0000000  0.0000000 )
                  ( -1.0000000  0.0000000  0.0000000 )


      isym = 37     inv. 180 deg rotation - cart. axis [0,1,1]   

 cryst.   s(37) = (     1          0          0      )
                  (     0          0         -1      )
                  (     0         -1          0      )

 cart.    s(37) = (  1.0000000  0.0000000  0.0000000 )
                  (  0.0000000  0.0000000 -1.0000000 )
                  (  0.0000000 -1.0000000  0.0000000 )


      isym = 38     inv. 180 deg rotation - cart. axis [0,1,-1]  

 cryst.   s(38) = (     1          0          0      )
                  (     0          0          1      )
                  (     0          1          0      )

 cart.    s(38) = (  1.0000000  0.0000000  0.0000000 )
                  (  0.0000000  0.0000000  1.0000000 )
                  (  0.0000000  1.0000000  0.0000000 )


      isym = 39     inv.  90 deg rotation - cart. axis [-1,0,0]  

 cryst.   s(39) = (    -1          0          0      )
                  (     0          0          1      )
                  (     0         -1          0      )

 cart.    s(39) = ( -1.0000000  0.0000000  0.0000000 )
                  (  0.0000000  0.0000000 -1.0000000 )
                  (  0.0000000  1.0000000  0.0000000 )


      isym = 40     inv.  90 deg rotation - cart. axis [1,0,0]   

 cryst.   s(40) = (    -1          0          0      )
                  (     0          0         -1      )
                  (     0          1          0      )

 cart.    s(40) = ( -1.0000000  0.0000000  0.0000000 )
                  (  0.0000000  0.0000000  1.0000000 )
                  (  0.0000000 -1.0000000  0.0000000 )


      isym = 41     inv. 120 deg rotation - cart. axis [-1,-1,-1]

 cryst.   s(41) = (     0          0         -1      )
                  (    -1          0          0      )
                  (     0         -1          0      )

 cart.    s(41) = (  0.0000000 -1.0000000  0.0000000 )
                  (  0.0000000  0.0000000 -1.0000000 )
                  ( -1.0000000  0.0000000  0.0000000 )


      isym = 42     inv. 120 deg rotation - cart. axis [-1,1,1]  

 cryst.   s(42) = (     0          0          1      )
                  (     1          0          0      )
                  (     0         -1          0      )

 cart.    s(42) = (  0.0000000  1.0000000  0.0000000 )
                  (  0.0000000  0.0000000 -1.0000000 )
                  (  1.0000000  0.0000000  0.0000000 )


      isym = 43     inv. 120 deg rotation - cart. axis [1,1,-1]  

 cryst.   s(43) = (     0          0          1      )
                  (    -1          0          0      )
                  (     0          1          0      )

 cart.    s(43) = (  0.0000000 -1.0000000  0.0000000 )
                  (  0.0000000  0.0000000  1.0000000 )
                  (  1.0000000  0.0000000  0.0000000 )


      isym = 44     inv. 120 deg rotation - cart. axis [1,-1,1]  

 cryst.   s(44) = (     0          0         -1      )
                  (     1          0          0      )
                  (     0          1          0      )

 cart.    s(44) = (  0.0000000  1.0000000  0.0000000 )
                  (  0.0000000  0.0000000  1.0000000 )
                  ( -1.0000000  0.0000000  0.0000000 )


      isym = 45     inv. 120 deg rotation - cart. axis [1,1,1]   

 cryst.   s(45) = (     0         -1          0      )
                  (     0          0         -1      )
                  (    -1          0          0      )

 cart.    s(45) = (  0.0000000  0.0000000 -1.0000000 )
                  ( -1.0000000  0.0000000  0.0000000 )
                  (  0.0000000 -1.0000000  0.0000000 )


      isym = 46     inv. 120 deg rotation - cart. axis [-1,1,-1] 

 cryst.   s(46) = (     0          1          0      )
                  (     0          0          1      )
                  (    -1          0          0      )

 cart.    s(46) = (  0.0000000  0.0000000 -1.0000000 )
                  (  1.0000000  0.0000000  0.0000000 )
                  (  0.0000000  1.0000000  0.0000000 )


      isym = 47     inv. 120 deg rotation - cart. axis [1,-1,-1] 

 cryst.   s(47) = (     0          1          0      )
                  (     0          0         -1      )
                  (     1          0          0      )

 cart.    s(47) = (  0.0000000  0.0000000  1.0000000 )
                  (  1.0000000  0.0000000  0.0000000 )
                  (  0.0000000 -1.0000000  0.0000000 )


      isym = 48     inv. 120 deg rotation - cart. axis [-1,-1,1] 

 cryst.   s(48) = (     0         -1          0      )
                  (     0          0          1      )
                  (     1          0          0      )

 cart.    s(48) = (  0.0000000  0.0000000  1.0000000 )
                  ( -1.0000000  0.0000000  0.0000000 )
                  (  0.0000000  1.0000000  0.0000000 )


     point group O_h (m-3m) 
     there are 10 classes
     the character table:

       E     8C3   3C2   6C4   6C2'  i     8S6   3s_h  6S4   6s_d 
A_1g   1.00  1.00  1.00  1.00  1.00  1.00  1.00  1.00  1.00  1.00
A_2g   1.00  1.00  1.00 -1.00 -1.00  1.00  1.00  1.00 -1.00 -1.00
E_g    2.00 -1.00  2.00  0.00  0.00  2.00 -1.00  2.00  0.00  0.00
T_1g   3.00  0.00 -1.00  1.00 -1.00  3.00  0.00 -1.00  1.00 -1.00
T_2g   3.00  0.00 -1.00 -1.00  1.00  3.00  0.00 -1.00 -1.00  1.00
A_1u   1.00  1.00  1.00  1.00  1.00 -1.00 -1.00 -1.00 -1.00 -1.00
A_2u   1.00  1.00  1.00 -1.00 -1.00 -1.00 -1.00 -1.00  1.00  1.00
E_u    2.00 -1.00  2.00  0.00  0.00 -2.00  1.00 -2.00  0.00  0.00
T_1u   3.00  0.00 -1.00  1.00 -1.00 -3.00  0.00  1.00 -1.00  1.00
T_2u   3.00  0.00 -1.00 -1.00  1.00 -3.00  0.00  1.00  1.00 -1.00

     the symmetry operations in each class and the name of the first element:

     E        1
          identity                                               
     8C3     17   19   20   18   24   21   22   23
          120 deg rotation - cart. axis [-1,-1,-1]               
     3C2      2    4    3
          180 deg rotation - cart. axis [0,0,1]                  
     6C4      7    8   15   16   12   11
           90 deg rotation - cart. axis [0,0,-1]                 
     6C2'     5    6   14   13   10    9
          180 deg rotation - cart. axis [1,1,0]                  
     i       25
          inversion                                              
     8S6     41   43   44   42   48   45   46   47
          inv. 120 deg rotation - cart. axis [-1,-1,-1]          
     3s_h    26   28   27
          inv. 180 deg rotation - cart. axis [0,0,1]             
     6S4     31   32   39   40   36   35
          inv.  90 deg rotation - cart. axis [0,0,-1]            
     6s_d    29   30   38   37   34   33
          inv. 180 deg rotation - cart. axis [1,1,0]             

   Cartesian axes

     site n.     atom                  positions (alat units)
         1           Fe  tau(   1) = (   0.0000000   0.0000000   0.0000000  )
         2           Fe  tau(   2) = (   0.5000000   0.5000000   0.0000000  )
         3           Fe  tau(   3) = (   0.5000000   0.0000000   0.5000000  )
         4           Fe  tau(   4) = (   0.0000000   0.5000000   0.5000000  )

   Crystallographic axes

     site n.     atom                  positions (cryst. coord.)
         1           Fe  tau(   1) = (  0.0000000  0.0000000  0.0000000  )
         2           Fe  tau(   2) = (  0.5000000  0.5000000  0.0000000  )
         3           Fe  tau(   3) = (  0.5000000  0.0000000  0.5000000  )
         4           Fe  tau(   4) = (  0.0000000  0.5000000  0.5000000  )

     number of k points=    20  Gaussian smearing, width (Ry)=  0.0100
                       cart. coord. in units 2pi/alat
        k(    1) = (   0.0000000   0.0000000   0.0000000), wk =   0.0058309
        k(    2) = (   0.0000000   0.0000000   0.1428571), wk =   0.0349854
        k(    3) = (   0.0000000   0.0000000   0.2857143), wk =   0.0349854
        k(    4) = (   0.0000000   0.0000000   0.4285714), wk =   0.0349854
        k(    5) = (   0.0000000   0.1428571   0.1428571), wk =   0.0699708
        k(    6) = (   0.0000000   0.1428571   0.2857143), wk =   0.1399417
        k(    7) = (   0.0000000   0.1428571   0.4285714), wk =   0.1399417
        k(    8) = (   0.0000000   0.2857143   0.2857143), wk =   0.0699708
        k(    9) = (   0.0000000   0.2857143   0.4285714), wk =   0.1399417
        k(   10) = (   0.0000000   0.4285714   0.4285714), wk =   0.0699708
        k(   11) = (   0.1428571   0.1428571   0.1428571), wk =   0.0466472
        k(   12) = (   0.1428571   0.1428571   0.2857143), wk =   0.1399417
        k(   13) = (   0.1428571   0.1428571   0.4285714), wk =   0.1399417
        k(   14) = (   0.1428571   0.2857143   0.2857143), wk =   0.1399417
        k(   15) = (   0.1428571   0.2857143   0.4285714), wk =   0.2798834
        k(   16) = (   0.1428571   0.4285714   0.4285714), wk =   0.1399417
        k(   17) = (   0.2857143   0.2857143   0.2857143), wk =   0.0466472
        k(   18) = (   0.2857143   0.2857143   0.4285714), wk =   0.1399417
        k(   19) = (   0.2857143   0.4285714   0.4285714), wk =   0.1399417
        k(   20) = (   0.4285714   0.4285714   0.4285714), wk =   0.0466472

                       cryst. coord.
        k(    1) = (   0.0000000   0.0000000   0.0000000), wk =   0.0058309
        k(    2) = (   0.0000000   0.0000000   0.1428571), wk =   0.0349854
        k(    3) = (   0.0000000   0.0000000   0.2857143), wk =   0.0349854
        k(    4) = (   0.0000000   0.0000000   0.4285714), wk =   0.0349854
        k(    5) = (   0.0000000   0.1428571   0.1428571), wk =   0.0699708
        k(    6) = (   0.0000000   0.1428571   0.2857143), wk =   0.1399417
        k(    7) = (   0.0000000   0.1428571   0.4285714), wk =   0.1399417
        k(    8) = (   0.0000000   0.2857143   0.2857143), wk =   0.0699708
        k(    9) = (   0.0000000   0.2857143   0.4285714), wk =   0.1399417
        k(   10) = (   0.0000000   0.4285714   0.4285714), wk =   0.0699708
        k(   11) = (   0.1428571   0.1428571   0.1428571), wk =   0.0466472
        k(   12) = (   0.1428571   0.1428571   0.2857143), wk =   0.1399417
        k(   13) = (   0.1428571   0.1428571   0.4285714), wk =   0.1399417
        k(   14) = (   0.1428571   0.2857143   0.2857143), wk =   0.1399417
        k(   15) = (   0.1428571   0.2857143   0.4285714), wk =   0.2798834
        k(   16) = (   0.1428571   0.4285714   0.4285714), wk =   0.1399417
        k(   17) = (   0.2857143   0.2857143   0.2857143), wk =   0.0466472
        k(   18) = (   0.2857143   0.2857143   0.4285714), wk =   0.1399417
        k(   19) = (   0.2857143   0.4285714   0.4285714), wk =   0.1399417
        k(   20) = (   0.4285714   0.4285714   0.4285714), wk =   0.0466472

     Dense  grid:    58269 G-vectors     FFT dimensions: (  50,  50,  50)

     Smooth grid:    14771 G-vectors     FFT dimensions: (  32,  32,  32)

     Dynamical RAM for                 wfc:       1.07 MB

     Dynamical RAM for     wfc (w. buffer):      22.53 MB

     Dynamical RAM for           str. fact:       0.89 MB

     Dynamical RAM for           local pot:       0.00 MB

     Dynamical RAM for          nlocal pot:       2.03 MB

     Dynamical RAM for                qrad:       1.79 MB

     Dynamical RAM for          rho,v,vnew:       5.53 MB

     Dynamical RAM for               rhoin:       1.84 MB

     Dynamical RAM for            rho*nmix:      14.23 MB

     Dynamical RAM for           G-vectors:       3.45 MB

     Dynamical RAM for          h,s,v(r/c):       0.26 MB

     Dynamical RAM for          <psi|beta>:       0.04 MB

     Dynamical RAM for                 psi:       2.15 MB

     Dynamical RAM for                hpsi:       2.15 MB

     Dynamical RAM for                spsi:       2.15 MB

     Dynamical RAM for      wfcinit/wfcrot:       2.30 MB

     Dynamical RAM for           addusdens:     168.93 MB

     Dynamical RAM for          addusforce:     174.73 MB

     Dynamical RAM for         addusstress:     178.71 MB

     Estimated static dynamical RAM per process >      58.83 MB

     Estimated max dynamical RAM per process >     237.55 MB

     Check: negative core charge=   -0.000002

     Initial potential from superposition of free atoms

     starting charge   63.99825, renormalised to   64.00000
     Starting wfcs are   40 randomized atomic wfcs

     total cpu time spent up to now is        4.7 secs

     Self-consistent Calculation

     iteration #  1     ecut=    50.00 Ry     beta= 0.70
     Davidson diagonalization with overlap
     ethr =  1.00E-02,  avg # of iterations =  2.5

     Threshold (ethr) on eigenvalues was too large:
     Diagonalizing with lowered threshold

     Davidson diagonalization with overlap
     ethr =  1.37E-04,  avg # of iterations =  4.7

     total cpu time spent up to now is       20.7 secs

     total energy              =    -991.02525403 Ry
     estimated scf accuracy    <       0.19569181 Ry

     iteration #  2     ecut=    50.00 Ry     beta= 0.70
     Davidson diagonalization with overlap
     ethr =  3.06E-04,  avg # of iterations =  5.5

     total cpu time spent up to now is       33.1 secs

     total energy              =    -991.02173743 Ry
     estimated scf accuracy    <       0.69340543 Ry

     iteration #  3     ecut=    50.00 Ry     beta= 0.70
     Davidson diagonalization with overlap
     ethr =  3.06E-04,  avg # of iterations =  4.1

     total cpu time spent up to now is       43.4 secs

     total energy              =    -991.13592659 Ry
     estimated scf accuracy    <       0.00054699 Ry

     iteration #  4     ecut=    50.00 Ry     beta= 0.70
     Davidson diagonalization with overlap
     c_bands:  1 eigenvalues not converged
     ethr =  8.55E-07,  avg # of iterations =  7.9

     total cpu time spent up to now is       56.0 secs

     total energy              =    -991.13234831 Ry
     estimated scf accuracy    <       0.20865493 Ry

     iteration #  5     ecut=    50.00 Ry     beta= 0.70
     Davidson diagonalization with overlap
     ethr =  8.55E-07,  avg # of iterations =  5.0

     total cpu time spent up to now is       67.4 secs

     total energy              =    -991.13701063 Ry
     estimated scf accuracy    <       0.00101466 Ry

     iteration #  6     ecut=    50.00 Ry     beta= 0.70
     Davidson diagonalization with overlap
     ethr =  8.55E-07,  avg # of iterations =  2.1

     total cpu time spent up to now is       76.6 secs

     total energy              =    -991.13694700 Ry
     estimated scf accuracy    <       0.00029852 Ry

     iteration #  7     ecut=    50.00 Ry     beta= 0.70
     Davidson diagonalization with overlap
     ethr =  4.66E-07,  avg # of iterations =  4.0

     total cpu time spent up to now is       85.8 secs

     total energy              =    -991.13702192 Ry
     estimated scf accuracy    <       0.00000513 Ry

     iteration #  8     ecut=    50.00 Ry     beta= 0.70
     Davidson diagonalization with overlap
     ethr =  8.01E-09,  avg # of iterations =  3.7

     total cpu time spent up to now is       95.9 secs

     total energy              =    -991.13702210 Ry
     estimated scf accuracy    <       0.00001085 Ry

     iteration #  9     ecut=    50.00 Ry     beta= 0.70
     Davidson diagonalization with overlap
     ethr =  8.01E-09,  avg # of iterations =  1.0

     total cpu time spent up to now is      103.2 secs

     total energy              =    -991.13702064 Ry
     estimated scf accuracy    <       0.00000669 Ry

     iteration # 10     ecut=    50.00 Ry     beta= 0.70
     Davidson diagonalization with overlap
     ethr =  8.01E-09,  avg # of iterations =  2.3

     total cpu time spent up to now is      111.0 secs

     total energy              =    -991.13702065 Ry
     estimated scf accuracy    <       0.00000129 Ry

     iteration # 11     ecut=    50.00 Ry     beta= 0.70
     Davidson diagonalization with overlap
     ethr =  2.02E-09,  avg # of iterations =  4.1

     total cpu time spent up to now is      120.4 secs

     End of self-consistent calculation

          k = 0.0000 0.0000 0.0000 (  1839 PWs)   bands (ev):

   -69.0862 -68.9909 -68.9909 -68.9909 -35.2791 -35.2791 -35.2791 -35.0437
   -35.0437 -35.0437 -35.0437 -35.0437 -35.0437 -34.8928 -34.8928 -34.8928
     9.6612  13.7080  13.7080  13.7080  14.3858  14.3858  14.3858  16.5986
    16.5986  16.5986  17.9271  17.9271  18.8009  18.8009  18.8009  19.0581
    19.0581  19.0581  19.0581  19.0581  19.0581  20.8430

     occupation numbers 
     1.0000   1.0000   1.0000   1.0000   1.0000   1.0000   1.0000   1.0000
     1.0000   1.0000   1.0000   1.0000   1.0000   1.0000   1.0000   1.0000
     1.0000   1.0000   1.0000   1.0000   1.0000   1.0000   1.0000   1.0000
     1.0000   1.0000   0.6598   0.6598   0.0000   0.0000   0.0000   0.0000
     0.0000   0.0000   0.0000   0.0000   0.0000   0.0000

          k = 0.0000 0.0000 0.1429 (  1847 PWs)   bands (ev):

   -69.0815 -68.9956 -68.9909 -68.9909 -35.2670 -35.2670 -35.2599 -35.0556
   -35.0556 -35.0445 -35.0445 -35.0359 -35.0359 -34.9152 -34.9009 -34.9009
     9.9233  13.7407  13.8602  13.8602  14.4850  14.4928  14.4928  16.4708
    16.6771  16.6771  17.8010  17.9679  18.2555  18.2555  18.6472  18.6472
    18.7560  18.8923  18.8923  19.0624  19.0624  19.8294

     occupation numbers 
     1.0000   1.0000   1.0000   1.0000   1.0000   1.0000   1.0000   1.0000
     1.0000   1.0000   1.0000   1.0000   1.0000   1.0000   1.0000   1.0000
     1.0000   1.0000   1.0000   1.0000   1.0000   1.0000   1.0000   1.0000
     1.0000   1.0000   0.9575   0.4950   0.0013   0.0013   0.0000   0.0000
     0.0000   0.0000   0.0000   0.0000   0.0000   0.0000

          k = 0.0000 0.0000 0.2857 (  1839 PWs)   bands (ev):

   -69.0683 -69.0088 -68.9909 -68.9909 -35.2340 -35.2340 -35.2086 -35.0883
   -35.0883 -35.0450 -35.0450 -35.0150 -35.0150 -34.9703 -34.9224 -34.9224
    10.6877  13.6694  14.2627  14.2627  14.7631  14.8177  14.8177  16.1289
    16.9450  16.9450  17.1207  17.1207  17.5009  18.0793  18.1282  18.2624
    18.2624  18.4537  18.4537  18.6312  19.0638  19.0638

     occupation numbers 
     1.0000   1.0000   1.0000   1.0000   1.0000   1.0000   1.0000   1.0000
     1.0000   1.0000   1.0000   1.0000   1.0000   1.0000   1.0000   1.0000
     1.0000   1.0000   1.0000   1.0000   1.0000   1.0000   1.0000   1.0000
     1.0000   1.0000   1.0000   1.0000   1.0000   0.1210   0.0466   0.0011
     0.0011   0.0000   0.0000   0.0000   0.0000   0.0000

          k = 0.0000 0.0000 0.4286 (  1852 PWs)   bands (ev):

   -69.0492 -69.0279 -68.9908 -68.9908 -35.1877 -35.1877 -35.1355 -35.1355
   -35.1332 -35.0494 -35.0464 -35.0464 -34.9854 -34.9854 -34.9528 -34.9528
    11.8339  13.0318  14.6597  14.6597  15.1819  15.3681  15.3681  15.6625
    16.1359  16.1359  17.1635  17.1821  17.3614  17.3614  17.8614  17.8614
    17.8952  17.8952  18.2505  18.4473  19.0618  19.0618

     occupation numbers 
     1.0000   1.0000   1.0000   1.0000   1.0000   1.0000   1.0000   1.0000
     1.0000   1.0000   1.0000   1.0000   1.0000   1.0000   1.0000   1.0000
     1.0000   1.0000   1.0000   1.0000   1.0000   1.0000   1.0000   1.0000
     1.0000   1.0000   1.0000   1.0000   1.0000   1.0000   0.8631   0.8631
     0.7713   0.7713   0.0016   0.0000   0.0000   0.0000

          k = 0.0000 0.1429 0.1429 (  1855 PWs)   bands (ev):

   -69.0770 -68.9954 -68.9954 -68.9911 -35.2554 -35.2518 -35.2518 -35.0770
   -35.0481 -35.0481 -35.0359 -35.0359 -35.0334 -34.9436 -34.9092 -34.8985
    10.1820  13.9001  13.9001  14.0080  14.5831  14.5831  14.5893  16.3961
    16.7260  16.7401  17.7705  17.8554  17.9449  17.9562  17.9562  18.5184
    18.6381  18.6381  18.8900  18.8900  18.9513  20.8741

     occupation numbers 
     1.0000   1.0000   1.0000   1.0000   1.0000   1.0000   1.0000   1.0000
     1.0000   1.0000   1.0000   1.0000   1.0000   1.0000   1.0000   1.0000
     1.0000   1.0000   1.0000   1.0000   1.0000   1.0000   1.0000   1.0000
     1.0000   1.0000   0.9793   0.8764   0.5896   0.5435   0.5435   0.0000
     0.0000   0.0000   0.0000   0.0000   0.0000   0.0000

          k = 0.0000 0.1429 0.2857 (  1861 PWs)   bands (ev):

   -69.0644 -69.0079 -68.9947 -68.9917 -35.2286 -35.2236 -35.2090 -35.1124
   -35.0805 -35.0338 -35.0265 -35.0265 -35.0119 -35.0007 -34.9310 -34.9124
    10.9307  13.8466  14.3195  14.3901  14.8435  14.8709  14.8882  16.1131
    16.8678  16.8904  16.9577  16.9833  17.2694  17.5601  18.0903  18.1744
    18.2654  18.4533  18.4592  18.8852  18.8970  19.4555

     occupation numbers 
     1.0000   1.0000   1.0000   1.0000   1.0000   1.0000   1.0000   1.0000
     1.0000   1.0000   1.0000   1.0000   1.0000   1.0000   1.0000   1.0000
     1.0000   1.0000   1.0000   1.0000   1.0000   1.0000   1.0000   1.0000
     1.0000   1.0000   1.0000   1.0000   1.0000   1.0000   0.0995   0.0154
     0.0010   0.0000   0.0000   0.0000   0.0000   0.0000

          k = 0.0000 0.1429 0.4286 (  1852 PWs)   bands (ev):

   -69.0463 -69.0261 -68.9937 -68.9926 -35.1934 -35.1774 -35.1528 -35.1448
   -35.1263 -35.0724 -35.0294 -35.0269 -34.9964 -34.9777 -34.9619 -34.9414
    12.0527  13.2239  14.7659  14.7974  15.2326  15.3037  15.4069  15.6883
    15.9676  16.1170  16.7996  16.8718  17.3682  17.5761  17.8281  17.8704
    17.8935  18.0143  18.3497  18.7154  18.8848  18.8860

     occupation numbers 
     1.0000   1.0000   1.0000   1.0000   1.0000   1.0000   1.0000   1.0000
     1.0000   1.0000   1.0000   1.0000   1.0000   1.0000   1.0000   1.0000
     1.0000   1.0000   1.0000   1.0000   1.0000   1.0000   1.0000   1.0000
     1.0000   1.0000   1.0000   1.0000   1.0000   1.0000   0.9252   0.8416
     0.7766   0.3103   0.0000   0.0000   0.0000   0.0000

          k = 0.0000 0.2857 0.2857 (  1851 PWs)   bands (ev):

   -69.0537 -69.0054 -69.0054 -68.9942 -35.2072 -35.2072 -35.1936 -35.1479
   -35.0572 -35.0571 -35.0571 -35.0048 -35.0019 -35.0019 -34.9534 -34.9113
    11.6305  14.3283  14.3283  14.7245  15.0259  15.0971  15.0971  15.9941
    16.4052  16.4052  16.5850  16.8111  17.0964  17.4811  17.9357  18.1366
    18.1366  18.3372  18.4491  18.4491  18.6380  20.6264

     occupation numbers 
     1.0000   1.0000   1.0000   1.0000   1.0000   1.0000   1.0000   1.0000
     1.0000   1.0000   1.0000   1.0000   1.0000   1.0000   1.0000   1.0000
     1.0000   1.0000   1.0000   1.0000   1.0000   1.0000   1.0000   1.0000
     1.0000   1.0000   1.0000   1.0000   1.0000   1.0000   0.6264   0.0387
     0.0387   0.0001   0.0000   0.0000   0.0000   0.0000

          k = 0.0000 0.2857 0.4286 (  1862 PWs)   bands (ev):

   -69.0381 -69.0209 -69.0018 -68.9977 -35.1984 -35.1782 -35.1692 -35.1495
   -35.1168 -35.1012 -35.0244 -34.9945 -34.9934 -34.9875 -34.9638 -34.9308
    12.6657  13.7514  14.8934  15.1471  15.1643  15.3985  15.5065  15.6982
    15.7284  16.0411  16.3129  16.6081  17.4205  17.4721  17.6861  17.7661
    17.7880  17.9060  18.4544  18.5042  18.8057  19.4759

     occupation numbers 
     1.0000   1.0000   1.0000   1.0000   1.0000   1.0000   1.0000   1.0000
     1.0000   1.0000   1.0000   1.0000   1.0000   1.0000   1.0000   1.0000
     1.0000   1.0000   1.0000   1.0000   1.0000   1.0000   1.0000   1.0000
     1.0000   1.0000   1.0000   1.0000   1.0000   1.0000   0.9982   0.9815
     0.9684   0.7359   0.0000   0.0000   0.0000   0.0000

          k = 0.0000 0.4286 0.4286 (  1844 PWs)   bands (ev):

   -69.0264 -69.0134 -69.0134 -69.0052 -35.1916 -35.1872 -35.1872 -35.1587
   -35.1096 -35.0643 -35.0643 -35.0241 -34.9680 -34.9581 -34.9581 -34.9348
    13.5379  14.4073  14.4073  14.8895  15.6115  15.6390  15.6390  15.7244
    15.8738  15.9610  15.9610  16.3692  17.3169  17.4665  17.4880  17.4880
    17.6096  17.9790  17.9790  18.1642  19.4825  20.4124

     occupation numbers 
     1.0000   1.0000   1.0000   1.0000   1.0000   1.0000   1.0000   1.0000
     1.0000   1.0000   1.0000   1.0000   1.0000   1.0000   1.0000   1.0000
     1.0000   1.0000   1.0000   1.0000   1.0000   1.0000   1.0000   1.0000
     1.0000   1.0000   1.0000   1.0000   1.0000   1.0000   1.0000   1.0000
     0.9999   0.4493   0.4493   0.0200   0.0000   0.0000

          k = 0.1429 0.1429 0.1429 (  1857 PWs)   bands (ev):

   -69.0727 -68.9954 -68.9954 -68.9954 -35.2448 -35.2448 -35.2448 -35.0654
   -35.0654 -35.0654 -35.0265 -35.0265 -35.0265 -34.9726 -34.9046 -34.9046
    10.4358  14.0474  14.0474  14.0474  14.6745  14.6745  14.6745  16.3465
    16.7692  16.7692  17.5946  17.5946  17.5946  17.8543  17.8543  18.3422
    18.3422  18.3422  18.9509  18.9509  18.9509  21.4821

     occupation numbers 
     1.0000   1.0000   1.0000   1.0000   1.0000   1.0000   1.0000   1.0000
     1.0000   1.0000   1.0000   1.0000   1.0000   1.0000   1.0000   1.0000
     1.0000   1.0000   1.0000   1.0000   1.0000   1.0000   1.0000   1.0000
     1.0000   1.0000   0.9999   0.9999   0.9999   0.8787   0.8787   0.0000
     0.0000   0.0000   0.0000   0.0000   0.0000   0.0000

          k = 0.1429 0.1429 0.2857 (  1870 PWs)   bands (ev):

   -69.0608 -69.0073 -68.9953 -68.9953 -35.2260 -35.2260 -35.2129 -35.0929
   -35.0929 -35.0325 -35.0309 -35.0195 -35.0195 -35.0079 -34.9242 -34.9160
    11.1625  13.9975  14.4369  14.4369  14.9278  14.9353  14.9353  16.1046
    16.7879  16.7879  16.8715  16.9087  16.9913  17.6877  17.9591  18.0509
    18.0509  18.0665  18.8523  18.8741  18.8741  19.8258

     occupation numbers 
     1.0000   1.0000   1.0000   1.0000   1.0000   1.0000   1.0000   1.0000
     1.0000   1.0000   1.0000   1.0000   1.0000   1.0000   1.0000   1.0000
     1.0000   1.0000   1.0000   1.0000   1.0000   1.0000   1.0000   1.0000
     1.0000   1.0000   1.0000   1.0000   1.0000   0.9981   0.5316   0.1906
     0.1906   0.1498   0.0000   0.0000   0.0000   0.0000

          k = 0.1429 0.1429 0.4286 (  1845 PWs)   bands (ev):

   -69.0436 -69.0244 -68.9953 -68.9953 -35.2045 -35.2045 -35.1605 -35.1170
   -35.1170 -35.0978 -35.0165 -35.0165 -34.9886 -34.9804 -34.9508 -34.9466
    12.2496  13.3853  14.8921  14.8921  15.2495  15.2495  15.3048  15.7258
    16.0860  16.0860  16.6506  16.7852  17.1721  17.5413  17.7552  17.7552
    17.8888  18.3508  18.6228  18.6396  18.8176  18.8176

     occupation numbers 
     1.0000   1.0000   1.0000   1.0000   1.0000   1.0000   1.0000   1.0000
     1.0000   1.0000   1.0000   1.0000   1.0000   1.0000   1.0000   1.0000
     1.0000   1.0000   1.0000   1.0000   1.0000   1.0000   1.0000   1.0000
     1.0000   1.0000   1.0000   1.0000   1.0000   1.0000   0.9860   0.9860
     0.7910   0.0000   0.0000   0.0000   0.0000   0.0000

          k = 0.1429 0.2857 0.2857 (  1853 PWs)   bands (ev):

   -69.0507 -69.0054 -69.0054 -68.9971 -35.2220 -35.2193 -35.2192 -35.1030
   -35.0882 -35.0498 -35.0498 -34.9996 -34.9980 -34.9980 -34.9399 -34.9165
    11.8243  14.3739  14.3739  14.7000  15.1028  15.1747  15.1747  16.0353
    16.4240  16.4240  16.5303  16.8096  16.9222  17.7157  17.7183  17.7183
    17.7453  18.2672  18.7657  18.7658  18.7701  20.7753

     occupation numbers 
     1.0000   1.0000   1.0000   1.0000   1.0000   1.0000   1.0000   1.0000
     1.0000   1.0000   1.0000   1.0000   1.0000   1.0000   1.0000   1.0000
     1.0000   1.0000   1.0000   1.0000   1.0000   1.0000   1.0000   1.0000
     1.0000   1.0000   1.0000   1.0000   1.0000   0.9955   0.9951   0.9951
     0.9893   0.0009   0.0000   0.0000   0.0000   0.0000

          k = 0.1429 0.2857 0.4286 (  1842 PWs)   bands (ev):

   -69.0361 -69.0199 -69.0027 -68.9997 -35.2231 -35.2224 -35.1919 -35.1459
   -35.0956 -35.0738 -35.0050 -34.9899 -34.9894 -34.9682 -34.9656 -34.9339
    12.7929  13.7911  14.7712  14.9010  15.3065  15.4147  15.5297  15.8373
    16.0704  16.2244  16.3574  16.6244  17.0480  17.3376  17.4788  17.5075
    17.9488  18.4406  18.6306  18.6371  18.7202  19.4213

     occupation numbers 
     1.0000   1.0000   1.0000   1.0000   1.0000   1.0000   1.0000   1.0000
     1.0000   1.0000   1.0000   1.0000   1.0000   1.0000   1.0000   1.0000
     1.0000   1.0000   1.0000   1.0000   1.0000   1.0000   1.0000   1.0000
     1.0000   1.0000   1.0000   1.0000   1.0000   1.0000   1.0000   1.0000
     0.5739   0.0000   0.0000   0.0000   0.0000   0.0000

          k = 0.1429 0.4286 0.4286 (  1848 PWs)   bands (ev):

   -69.0253 -69.0134 -69.0134 -69.0062 -35.2291 -35.2185 -35.2185 -35.1909
   -35.0660 -35.0340 -35.0340 -34.9983 -34.9662 -34.9584 -34.9584 -34.9369
    13.5294  14.2419  14.2419  14.6064  15.7156  15.8414  15.8414  15.9474
    16.1502  16.1502  16.2291  16.4297  16.9947  17.1824  17.1824  17.2163
    17.9805  18.2993  18.2994  18.4014  19.3702  20.3179

     occupation numbers 
     1.0000   1.0000   1.0000   1.0000   1.0000   1.0000   1.0000   1.0000
     1.0000   1.0000   1.0000   1.0000   1.0000   1.0000   1.0000   1.0000
     1.0000   1.0000   1.0000   1.0000   1.0000   1.0000   1.0000   1.0000
     1.0000   1.0000   1.0000   1.0000   1.0000   1.0000   1.0000   1.0000
     0.4428   0.0003   0.0003   0.0000   0.0000   0.0000

          k = 0.2857 0.2857 0.2857 (  1854 PWs)   bands (ev):

   -69.0424 -69.0053 -69.0053 -69.0053 -35.2420 -35.2420 -35.2420 -35.1459
   -35.0385 -35.0385 -35.0385 -34.9870 -34.9870 -34.9870 -34.9298 -34.9298
    12.3625  14.4318  14.4318  14.4318  15.4355  15.4355  15.4355  16.1397
    16.4484  16.4484  16.4484  16.7748  16.7748  17.3241  17.3241  17.3241
    18.1640  18.1640  18.8773  18.8773  18.8773  21.1975

     occupation numbers 
     1.0000   1.0000   1.0000   1.0000   1.0000   1.0000   1.0000   1.0000
     1.0000   1.0000   1.0000   1.0000   1.0000   1.0000   1.0000   1.0000
     1.0000   1.0000   1.0000   1.0000   1.0000   1.0000   1.0000   1.0000
     1.0000   1.0000   1.0000   1.0000   1.0000   1.0000   1.0000   1.0000
     0.0201   0.0201   0.0000   0.0000   0.0000   0.0000

          k = 0.2857 0.2857 0.4286 (  1839 PWs)   bands (ev):

   -69.0304 -69.0172 -69.0053 -69.0052 -35.2575 -35.2575 -35.2332 -35.1988
   -35.0333 -35.0333 -34.9804 -34.9774 -34.9774 -34.9683 -34.9483 -34.9423
    13.1133  13.8680  14.4423  14.4423  15.6943  15.6943  15.9076  16.1816
    16.4574  16.5113  16.5113  16.6177  16.7961  16.9941  17.1169  17.1169
    18.4340  18.5505  18.7751  18.7751  18.8088  19.4614

     occupation numbers 
     1.0000   1.0000   1.0000   1.0000   1.0000   1.0000   1.0000   1.0000
     1.0000   1.0000   1.0000   1.0000   1.0000   1.0000   1.0000   1.0000
     1.0000   1.0000   1.0000   1.0000   1.0000   1.0000   1.0000   1.0000
     1.0000   1.0000   1.0000   1.0000   1.0000   1.0000   1.0000   1.0000
     0.0000   0.0000   0.0000   0.0000   0.0000   0.0000

          k = 0.2857 0.4286 0.4286 (  1840 PWs)   bands (ev):

   -69.0223 -69.0133 -69.0133 -69.0090 -35.2735 -35.2650 -35.2650 -35.2435
   -35.0053 -34.9882 -34.9882 -34.9622 -34.9618 -34.9582 -34.9582 -34.9420
    13.5261  13.9708  13.9708  14.1557  16.0505  16.1783  16.1783  16.5122
    16.6451  16.6865  16.7002  16.7002  16.8148  16.8326  16.8326  16.8560
    18.4235  18.6882  18.6882  18.7075  19.0514  20.0095

     occupation numbers 
     1.0000   1.0000   1.0000   1.0000   1.0000   1.0000   1.0000   1.0000
     1.0000   1.0000   1.0000   1.0000   1.0000   1.0000   1.0000   1.0000
     1.0000   1.0000   1.0000   1.0000   1.0000   1.0000   1.0000   1.0000
     1.0000   1.0000   1.0000   1.0000   1.0000   1.0000   1.0000   1.0000
     0.0000   0.0000   0.0000   0.0000   0.0000   0.0000

          k = 0.4286 0.4286 0.4286 (  1868 PWs)   bands (ev):

   -69.0180 -69.0133 -69.0133 -69.0132 -35.2935 -35.2935 -35.2935 -35.2823
   -34.9633 -34.9633 -34.9633 -34.9564 -34.9564 -34.9564 -34.9490 -34.9490
    13.5916  13.7977  13.7977  13.7977  16.3868  16.3868  16.3868  16.5464
    16.5464  16.6061  16.6061  16.6061  17.4176  17.4176  17.4176  17.5127
    18.7339  18.7339  18.8339  18.8339  18.8339  19.5725

     occupation numbers 
     1.0000   1.0000   1.0000   1.0000   1.0000   1.0000   1.0000   1.0000
     1.0000   1.0000   1.0000   1.0000   1.0000   1.0000   1.0000   1.0000
     1.0000   1.0000   1.0000   1.0000   1.0000   1.0000   1.0000   1.0000
     1.0000   1.0000   1.0000   1.0000   1.0000   1.0000   1.0000   1.0000
     0.0000   0.0000   0.0000   0.0000   0.0000   0.0000

     the Fermi energy is    17.9667 ev

!    total energy              =    -991.13702093 Ry
     estimated scf accuracy    <          4.0E-10 Ry
     smearing contrib. (-TS)   =      -0.00649781 Ry
     internal energy E=F+TS    =    -991.13052312 Ry

     The total energy is F=E-TS. E is the sum of the following terms:
     one-electron contribution =    -447.13825041 Ry
     hartree contribution      =     260.13246319 Ry
     xc contribution           =    -110.34268452 Ry
     ewald contribution        =    -693.78205137 Ry

     convergence has been achieved in  11 iterations

     Forces acting on atoms (cartesian axes, Ry/au):

     atom    1 type  1   force =     0.00000000    0.00000000    0.00000000
     atom    2 type  1   force =     0.00000000    0.00000000    0.00000000
     atom    3 type  1   force =     0.00000000    0.00000000    0.00000000
     atom    4 type  1   force =     0.00000000    0.00000000    0.00000000
     The non-local contrib.  to forces
     atom    1 type  1   force =     0.00000000    0.00000000    0.00000000
     atom    2 type  1   force =     0.00000000    0.00000000    0.00000000
     atom    3 type  1   force =     0.00000000    0.00000000    0.00000000
     atom    4 type  1   force =     0.00000000    0.00000000    0.00000000
     The ionic contribution  to forces
     atom    1 type  1   force =    -0.00000000   -0.00000000   -0.00000000
     atom    2 type  1   force =     0.00000000    0.00000000   -0.00000000
     atom    3 type  1   force =     0.00000000   -0.00000000    0.00000000
     atom    4 type  1   force =    -0.00000000    0.00000000    0.00000000
     The local contribution  to forces
     atom    1 type  1   force =     0.00000000    0.00000000    0.00000000
     atom    2 type  1   force =     0.00000000    0.00000000    0.00000000
     atom    3 type  1   force =     0.00000000    0.00000000    0.00000000
     atom    4 type  1   force =     0.00000000    0.00000000    0.00000000
     The core correction contribution to forces
     atom    1 type  1   force =     0.00000000    0.00000000   -0.00000000
     atom    2 type  1   force =    -0.00000000   -0.00000000   -0.00000000
     atom    3 type  1   force =    -0.00000000   -0.00000000   -0.00000000
     atom    4 type  1   force =     0.00000000   -0.00000000    0.00000000
     The Hubbard contrib.    to forces
     atom    1 type  1   force =     0.00000000    0.00000000    0.00000000
     atom    2 type  1   force =     0.00000000    0.00000000    0.00000000
     atom    3 type  1   force =     0.00000000    0.00000000    0.00000000
     atom    4 type  1   force =     0.00000000    0.00000000    0.00000000
     The SCF correction term to forces
     atom    1 type  1   force =    -0.00000000   -0.00000000   -0.00000000
     atom    2 type  1   force =    -0.00000000   -0.00000000   -0.00000000
     atom    3 type  1   force =    -0.00000000   -0.00000000   -0.00000000
     atom    4 type  1   force =    -0.00000000    0.00000000   -0.00000000

     Total force =     0.000000     Total SCF correction =     0.000000


     Computing stress (Cartesian axis) and pressure

          total   stress  (Ry/bohr**3)                   (kbar)     P=     -467.06
  -0.00317503   0.00000000   0.00000000         -467.06        0.00        0.00
   0.00000000  -0.00317503   0.00000000            0.00     -467.06        0.00
   0.00000000   0.00000000  -0.00317503            0.00        0.00     -467.06

     kinetic stress (kbar)  98127.51      0.00      0.00
                                0.00  98127.51      0.00
                                0.00      0.00  98127.51

     local   stress (kbar)  13945.99     -0.00     -0.00
                               -0.00  13945.99      0.00
                               -0.00      0.00  13945.99

     nonloc. stress (kbar) -27224.85      0.00      0.00
                                0.00 -27224.85      0.00
                                0.00      0.00 -27224.85

     hartree stress (kbar)  41161.52      0.00     -0.00
                                0.00  41161.52     -0.00
                               -0.00     -0.00  41161.52

     exc-cor stress (kbar) -14003.05     -0.00     -0.00
                               -0.00 -14003.05      0.00
                               -0.00      0.00 -14003.05

     corecor stress (kbar)  -2695.01     -0.00     -0.00
                               -0.00  -2695.01     -0.00
                               -0.00      0.00  -2695.01

     ewald   stress (kbar)-109779.17      0.00     -0.00
                                0.00-109779.17     -0.00
                               -0.00     -0.00-109779.17

     hubbard stress (kbar)      0.00      0.00      0.00
                                0.00      0.00      0.00
                                0.00      0.00      0.00

     DFT-D   stress (kbar)      0.00      0.00      0.00
                                0.00      0.00      0.00
                                0.00      0.00      0.00

     XDM     stress (kbar)      0.00      0.00      0.00
                                0.00      0.00      0.00
                                0.00      0.00      0.00

     dft-nl  stress (kbar)      0.00      0.00      0.00
                                0.00      0.00      0.00
                                0.00      0.00      0.00

     TS-vdW  stress (kbar)      0.00      0.00      0.00
                                0.00      0.00      0.00
                                0.00      0.00      0.00



     Writing output data file ./tmp/pwscf.save/

     init_run     :      3.13s CPU      3.96s WALL (       1 calls)
     electrons    :    104.78s CPU    115.79s WALL (       1 calls)
     forces       :      1.77s CPU      2.33s WALL (       1 calls)
     stress       :      3.31s CPU      4.66s WALL (       1 calls)

     Called by init_run:
     wfcinit      :      2.10s CPU      2.24s WALL (       1 calls)
     wfcinit:atom :      0.02s CPU      0.02s WALL (      20 calls)
     wfcinit:wfcr :      1.94s CPU      2.07s WALL (      20 calls)
     potinit      :      0.10s CPU      0.17s WALL (       1 calls)
     hinit0       :      0.64s CPU      0.72s WALL (       1 calls)

     Called by electrons:
     c_bands      :     90.47s CPU     91.31s WALL (      12 calls)
     sum_band     :     10.44s CPU     17.21s WALL (      12 calls)
     v_of_rho     :      0.92s CPU      1.20s WALL (      12 calls)
     v_h          :      0.04s CPU      0.04s WALL (      12 calls)
     v_xc         :      1.03s CPU      1.33s WALL (      14 calls)
     newd         :      3.10s CPU      6.62s WALL (      12 calls)
     mix_rho      :      0.09s CPU      0.10s WALL (      12 calls)

     Called by c_bands:
     init_us_2    :      0.53s CPU      0.57s WALL (     540 calls)
     cegterg      :     87.90s CPU     87.42s WALL (     240 calls)

     Called by sum_band:
     sum_band:wei :      0.01s CPU      0.01s WALL (      12 calls)
     sum_band:loo :      7.68s CPU      7.98s WALL (      12 calls)
     sum_band:buf :      0.04s CPU      0.04s WALL (     240 calls)
     sum_band:ini :      0.23s CPU      0.24s WALL (     240 calls)
     sum_band:cal :      3.05s CPU      3.15s WALL (     240 calls)
     sum_band:bec :      0.03s CPU      0.03s WALL (     240 calls)
     addusdens    :      2.64s CPU      9.09s WALL (      12 calls)
     addusd:skk   :      0.01s CPU      0.03s WALL (      12 calls)
     addusd:dgemm :      1.14s CPU      6.64s WALL (      12 calls)
     addusd:qvan2 :      1.09s CPU      1.12s WALL (      12 calls)

     Called by *egterg:
     cdiaghg      :      3.77s CPU      3.94s WALL (    1160 calls)
     cegterg:over :     10.25s CPU     10.61s WALL (     940 calls)
     cegterg:upda :      6.19s CPU      6.41s WALL (     940 calls)
     cegterg:last :     15.30s CPU     15.84s WALL (     545 calls)
     h_psi        :     40.97s CPU     38.83s WALL (    1200 calls)
     s_psi        :      8.86s CPU      9.18s WALL (    1200 calls)
     g_psi        :      0.40s CPU      0.41s WALL (     940 calls)

     Called by h_psi:
     h_psi:calbec :      8.66s CPU      6.94s WALL (    1200 calls)
     vloc_psi     :     23.24s CPU     23.45s WALL (    1200 calls)
     add_vuspsi   :      8.92s CPU      8.25s WALL (    1200 calls)

     General routines
     calbec       :     12.99s CPU     11.42s WALL (    1540 calls)
     fft          :      0.50s CPU      0.56s WALL (     180 calls)
     ffts         :      0.01s CPU      0.01s WALL (      24 calls)
     fftw         :     23.35s CPU     23.56s WALL (   61306 calls)
     interpolate  :      0.04s CPU      0.04s WALL (      12 calls)

     Parallel routines

     PWSCF        :   1m53.17s CPU   2m 8.77s WALL


   This run was terminated on:  15:43:46   3Dec2025            

=------------------------------------------------------------------------------=
   JOB DONE.
=------------------------------------------------------------------------------=
